# vtk DataFile Version 3.0
VTK output from Fortran
ASCII
DATASET UNSTRUCTURED_GRID
POINTS        261
 double
  0.0000000E+00  0.0000000E+00  0.0000000E+00
  0.1000000E+01  0.0000000E+00  0.0000000E+00
  0.1000000E+01  0.1000000E+01  0.0000000E+00
  0.0000000E+00  0.1000000E+01  0.0000000E+00
  0.0000000E+00  0.0000000E+00  0.8000000E+01
  0.1000000E+01  0.0000000E+00  0.8000000E+01
  0.1000000E+01  0.1000000E+01  0.8000000E+01
  0.0000000E+00  0.1000000E+01  0.8000000E+01
  0.2500000E+00  0.0000000E+00  0.0000000E+00
  0.5000000E+00  0.0000000E+00  0.0000000E+00
  0.7500000E+00  0.0000000E+00  0.0000000E+00
  0.1000000E+01  0.2500000E+00  0.0000000E+00
  0.1000000E+01  0.5000000E+00  0.0000000E+00
  0.1000000E+01  0.7500000E+00  0.0000000E+00
  0.7500000E+00  0.1000000E+01  0.0000000E+00
  0.5000000E+00  0.1000000E+01  0.0000000E+00
  0.2500000E+00  0.1000000E+01  0.0000000E+00
  0.0000000E+00  0.7500000E+00  0.0000000E+00
  0.0000000E+00  0.5000000E+00  0.0000000E+00
  0.0000000E+00  0.2500000E+00  0.0000000E+00
  0.2500000E+00  0.0000000E+00  0.8000000E+01
  0.5000000E+00  0.0000000E+00  0.8000000E+01
  0.7500000E+00  0.0000000E+00  0.8000000E+01
  0.1000000E+01  0.2500000E+00  0.8000000E+01
  0.1000000E+01  0.5000000E+00  0.8000000E+01
  0.1000000E+01  0.7500000E+00  0.8000000E+01
  0.7500000E+00  0.1000000E+01  0.8000000E+01
  0.5000000E+00  0.1000000E+01  0.8000000E+01
  0.2500000E+00  0.1000000E+01  0.8000000E+01
  0.0000000E+00  0.7500000E+00  0.8000000E+01
  0.0000000E+00  0.5000000E+00  0.8000000E+01
  0.0000000E+00  0.2500000E+00  0.8000000E+01
  0.1000000E+01  0.0000000E+00  0.5000000E+00
  0.1000000E+01  0.0000000E+00  0.1000000E+01
  0.1000000E+01  0.0000000E+00  0.1500000E+01
  0.1000000E+01  0.0000000E+00  0.2000000E+01
  0.1000000E+01  0.0000000E+00  0.2500000E+01
  0.1000000E+01  0.0000000E+00  0.3000000E+01
  0.1000000E+01  0.0000000E+00  0.3500000E+01
  0.1000000E+01  0.0000000E+00  0.4000000E+01
  0.1000000E+01  0.0000000E+00  0.4500000E+01
  0.1000000E+01  0.0000000E+00  0.5000000E+01
  0.1000000E+01  0.0000000E+00  0.5500000E+01
  0.1000000E+01  0.0000000E+00  0.6000000E+01
  0.1000000E+01  0.0000000E+00  0.6500000E+01
  0.1000000E+01  0.0000000E+00  0.7000000E+01
  0.1000000E+01  0.0000000E+00  0.7500000E+01
  0.0000000E+00  0.0000000E+00  0.7500000E+01
  0.0000000E+00  0.0000000E+00  0.7000000E+01
  0.0000000E+00  0.0000000E+00  0.6500000E+01
  0.0000000E+00  0.0000000E+00  0.6000000E+01
  0.0000000E+00  0.0000000E+00  0.5500000E+01
  0.0000000E+00  0.0000000E+00  0.5000000E+01
  0.0000000E+00  0.0000000E+00  0.4500000E+01
  0.0000000E+00  0.0000000E+00  0.4000000E+01
  0.0000000E+00  0.0000000E+00  0.3500000E+01
  0.0000000E+00  0.0000000E+00  0.3000000E+01
  0.0000000E+00  0.0000000E+00  0.2500000E+01
  0.0000000E+00  0.0000000E+00  0.2000000E+01
  0.0000000E+00  0.0000000E+00  0.1500000E+01
  0.0000000E+00  0.0000000E+00  0.1000000E+01
  0.0000000E+00  0.0000000E+00  0.5000000E+00
  0.1000000E+01  0.1000000E+01  0.5000000E+00
  0.1000000E+01  0.1000000E+01  0.1000000E+01
  0.1000000E+01  0.1000000E+01  0.1500000E+01
  0.1000000E+01  0.1000000E+01  0.2000000E+01
  0.1000000E+01  0.1000000E+01  0.2500000E+01
  0.1000000E+01  0.1000000E+01  0.3000000E+01
  0.1000000E+01  0.1000000E+01  0.3500000E+01
  0.1000000E+01  0.1000000E+01  0.4000000E+01
  0.1000000E+01  0.1000000E+01  0.4500000E+01
  0.1000000E+01  0.1000000E+01  0.5000000E+01
  0.1000000E+01  0.1000000E+01  0.5500000E+01
  0.1000000E+01  0.1000000E+01  0.6000000E+01
  0.1000000E+01  0.1000000E+01  0.6500000E+01
  0.1000000E+01  0.1000000E+01  0.7000000E+01
  0.1000000E+01  0.1000000E+01  0.7500000E+01
  0.0000000E+00  0.1000000E+01  0.5000000E+00
  0.0000000E+00  0.1000000E+01  0.1000000E+01
  0.0000000E+00  0.1000000E+01  0.1500000E+01
  0.0000000E+00  0.1000000E+01  0.2000000E+01
  0.0000000E+00  0.1000000E+01  0.2500000E+01
  0.0000000E+00  0.1000000E+01  0.3000000E+01
  0.0000000E+00  0.1000000E+01  0.3500000E+01
  0.0000000E+00  0.1000000E+01  0.4000000E+01
  0.0000000E+00  0.1000000E+01  0.4500000E+01
  0.0000000E+00  0.1000000E+01  0.5000000E+01
  0.0000000E+00  0.1000000E+01  0.5500000E+01
  0.0000000E+00  0.1000000E+01  0.6000000E+01
  0.0000000E+00  0.1000000E+01  0.6500000E+01
  0.0000000E+00  0.1000000E+01  0.7000000E+01
  0.0000000E+00  0.1000000E+01  0.7500000E+01
  0.5000000E+00  0.2500000E+00  0.0000000E+00
  0.2500000E+00  0.5000000E+00  0.0000000E+00
  0.5000000E+00  0.5000000E+00  0.0000000E+00
  0.7500000E+00  0.5000000E+00  0.0000000E+00
  0.5000000E+00  0.7500000E+00  0.0000000E+00
  0.5000000E+00  0.2500000E+00  0.8000000E+01
  0.2500000E+00  0.5000000E+00  0.8000000E+01
  0.5000000E+00  0.5000000E+00  0.8000000E+01
  0.7500000E+00  0.5000000E+00  0.8000000E+01
  0.5000000E+00  0.7500000E+00  0.8000000E+01
  0.5000000E+00  0.0000000E+00  0.5000000E+00
  0.2500000E+00  0.0000000E+00  0.1000000E+01
  0.5000000E+00  0.0000000E+00  0.1000000E+01
  0.7500000E+00  0.0000000E+00  0.1000000E+01
  0.5000000E+00  0.0000000E+00  0.1500000E+01
  0.2500000E+00  0.0000000E+00  0.2000000E+01
  0.5000000E+00  0.0000000E+00  0.2000000E+01
  0.7500000E+00  0.0000000E+00  0.2000000E+01
  0.5000000E+00  0.0000000E+00  0.2500000E+01
  0.2500000E+00  0.0000000E+00  0.3000000E+01
  0.5000000E+00  0.0000000E+00  0.3000000E+01
  0.7500000E+00  0.0000000E+00  0.3000000E+01
  0.5000000E+00  0.0000000E+00  0.3500000E+01
  0.2500000E+00  0.0000000E+00  0.4000000E+01
  0.5000000E+00  0.0000000E+00  0.4000000E+01
  0.7500000E+00  0.0000000E+00  0.4000000E+01
  0.5000000E+00  0.0000000E+00  0.4500000E+01
  0.2500000E+00  0.0000000E+00  0.5000000E+01
  0.5000000E+00  0.0000000E+00  0.5000000E+01
  0.7500000E+00  0.0000000E+00  0.5000000E+01
  0.5000000E+00  0.0000000E+00  0.5500000E+01
  0.2500000E+00  0.0000000E+00  0.6000000E+01
  0.5000000E+00  0.0000000E+00  0.6000000E+01
  0.7500000E+00  0.0000000E+00  0.6000000E+01
  0.5000000E+00  0.0000000E+00  0.6500000E+01
  0.2500000E+00  0.0000000E+00  0.7000000E+01
  0.5000000E+00  0.0000000E+00  0.7000000E+01
  0.7500000E+00  0.0000000E+00  0.7000000E+01
  0.5000000E+00  0.0000000E+00  0.7500000E+01
  0.1000000E+01  0.5000000E+00  0.5000000E+00
  0.1000000E+01  0.2500000E+00  0.1000000E+01
  0.1000000E+01  0.5000000E+00  0.1000000E+01
  0.1000000E+01  0.7500000E+00  0.1000000E+01
  0.1000000E+01  0.5000000E+00  0.1500000E+01
  0.1000000E+01  0.2500000E+00  0.2000000E+01
  0.1000000E+01  0.5000000E+00  0.2000000E+01
  0.1000000E+01  0.7500000E+00  0.2000000E+01
  0.1000000E+01  0.5000000E+00  0.2500000E+01
  0.1000000E+01  0.2500000E+00  0.3000000E+01
  0.1000000E+01  0.5000000E+00  0.3000000E+01
  0.1000000E+01  0.7500000E+00  0.3000000E+01
  0.1000000E+01  0.5000000E+00  0.3500000E+01
  0.1000000E+01  0.2500000E+00  0.4000000E+01
  0.1000000E+01  0.5000000E+00  0.4000000E+01
  0.1000000E+01  0.7500000E+00  0.4000000E+01
  0.1000000E+01  0.5000000E+00  0.4500000E+01
  0.1000000E+01  0.2500000E+00  0.5000000E+01
  0.1000000E+01  0.5000000E+00  0.5000000E+01
  0.1000000E+01  0.7500000E+00  0.5000000E+01
  0.1000000E+01  0.5000000E+00  0.5500000E+01
  0.1000000E+01  0.2500000E+00  0.6000000E+01
  0.1000000E+01  0.5000000E+00  0.6000000E+01
  0.1000000E+01  0.7500000E+00  0.6000000E+01
  0.1000000E+01  0.5000000E+00  0.6500000E+01
  0.1000000E+01  0.2500000E+00  0.7000000E+01
  0.1000000E+01  0.5000000E+00  0.7000000E+01
  0.1000000E+01  0.7500000E+00  0.7000000E+01
  0.1000000E+01  0.5000000E+00  0.7500000E+01
  0.5000000E+00  0.1000000E+01  0.5000000E+00
  0.7500000E+00  0.1000000E+01  0.1000000E+01
  0.5000000E+00  0.1000000E+01  0.1000000E+01
  0.2500000E+00  0.1000000E+01  0.1000000E+01
  0.5000000E+00  0.1000000E+01  0.1500000E+01
  0.7500000E+00  0.1000000E+01  0.2000000E+01
  0.5000000E+00  0.1000000E+01  0.2000000E+01
  0.2500000E+00  0.1000000E+01  0.2000000E+01
  0.5000000E+00  0.1000000E+01  0.2500000E+01
  0.7500000E+00  0.1000000E+01  0.3000000E+01
  0.5000000E+00  0.1000000E+01  0.3000000E+01
  0.2500000E+00  0.1000000E+01  0.3000000E+01
  0.5000000E+00  0.1000000E+01  0.3500000E+01
  0.7500000E+00  0.1000000E+01  0.4000000E+01
  0.5000000E+00  0.1000000E+01  0.4000000E+01
  0.2500000E+00  0.1000000E+01  0.4000000E+01
  0.5000000E+00  0.1000000E+01  0.4500000E+01
  0.7500000E+00  0.1000000E+01  0.5000000E+01
  0.5000000E+00  0.1000000E+01  0.5000000E+01
  0.2500000E+00  0.1000000E+01  0.5000000E+01
  0.5000000E+00  0.1000000E+01  0.5500000E+01
  0.7500000E+00  0.1000000E+01  0.6000000E+01
  0.5000000E+00  0.1000000E+01  0.6000000E+01
  0.2500000E+00  0.1000000E+01  0.6000000E+01
  0.5000000E+00  0.1000000E+01  0.6500000E+01
  0.7500000E+00  0.1000000E+01  0.7000000E+01
  0.5000000E+00  0.1000000E+01  0.7000000E+01
  0.2500000E+00  0.1000000E+01  0.7000000E+01
  0.5000000E+00  0.1000000E+01  0.7500000E+01
  0.0000000E+00  0.5000000E+00  0.5000000E+00
  0.0000000E+00  0.7500000E+00  0.1000000E+01
  0.0000000E+00  0.5000000E+00  0.1000000E+01
  0.0000000E+00  0.2500000E+00  0.1000000E+01
  0.0000000E+00  0.5000000E+00  0.1500000E+01
  0.0000000E+00  0.7500000E+00  0.2000000E+01
  0.0000000E+00  0.5000000E+00  0.2000000E+01
  0.0000000E+00  0.2500000E+00  0.2000000E+01
  0.0000000E+00  0.5000000E+00  0.2500000E+01
  0.0000000E+00  0.7500000E+00  0.3000000E+01
  0.0000000E+00  0.5000000E+00  0.3000000E+01
  0.0000000E+00  0.2500000E+00  0.3000000E+01
  0.0000000E+00  0.5000000E+00  0.3500000E+01
  0.0000000E+00  0.7500000E+00  0.4000000E+01
  0.0000000E+00  0.5000000E+00  0.4000000E+01
  0.0000000E+00  0.2500000E+00  0.4000000E+01
  0.0000000E+00  0.5000000E+00  0.4500000E+01
  0.0000000E+00  0.7500000E+00  0.5000000E+01
  0.0000000E+00  0.5000000E+00  0.5000000E+01
  0.0000000E+00  0.2500000E+00  0.5000000E+01
  0.0000000E+00  0.5000000E+00  0.5500000E+01
  0.0000000E+00  0.7500000E+00  0.6000000E+01
  0.0000000E+00  0.5000000E+00  0.6000000E+01
  0.0000000E+00  0.2500000E+00  0.6000000E+01
  0.0000000E+00  0.5000000E+00  0.6500000E+01
  0.0000000E+00  0.7500000E+00  0.7000000E+01
  0.0000000E+00  0.5000000E+00  0.7000000E+01
  0.0000000E+00  0.2500000E+00  0.7000000E+01
  0.0000000E+00  0.5000000E+00  0.7500000E+01
  0.5000000E+00  0.5000000E+00  0.5000000E+00
  0.5000000E+00  0.2500000E+00  0.1000000E+01
  0.2500000E+00  0.5000000E+00  0.1000000E+01
  0.5000000E+00  0.5000000E+00  0.1000000E+01
  0.7500000E+00  0.5000000E+00  0.1000000E+01
  0.5000000E+00  0.7500000E+00  0.1000000E+01
  0.5000000E+00  0.5000000E+00  0.1500000E+01
  0.5000000E+00  0.2500000E+00  0.2000000E+01
  0.2500000E+00  0.5000000E+00  0.2000000E+01
  0.5000000E+00  0.5000000E+00  0.2000000E+01
  0.7500000E+00  0.5000000E+00  0.2000000E+01
  0.5000000E+00  0.7500000E+00  0.2000000E+01
  0.5000000E+00  0.5000000E+00  0.2500000E+01
  0.5000000E+00  0.2500000E+00  0.3000000E+01
  0.2500000E+00  0.5000000E+00  0.3000000E+01
  0.5000000E+00  0.5000000E+00  0.3000000E+01
  0.7500000E+00  0.5000000E+00  0.3000000E+01
  0.5000000E+00  0.7500000E+00  0.3000000E+01
  0.5000000E+00  0.5000000E+00  0.3500000E+01
  0.5000000E+00  0.2500000E+00  0.4000000E+01
  0.2500000E+00  0.5000000E+00  0.4000000E+01
  0.5000000E+00  0.5000000E+00  0.4000000E+01
  0.7500000E+00  0.5000000E+00  0.4000000E+01
  0.5000000E+00  0.7500000E+00  0.4000000E+01
  0.5000000E+00  0.5000000E+00  0.4500000E+01
  0.5000000E+00  0.2500000E+00  0.5000000E+01
  0.2500000E+00  0.5000000E+00  0.5000000E+01
  0.5000000E+00  0.5000000E+00  0.5000000E+01
  0.7500000E+00  0.5000000E+00  0.5000000E+01
  0.5000000E+00  0.7500000E+00  0.5000000E+01
  0.5000000E+00  0.5000000E+00  0.5500000E+01
  0.5000000E+00  0.2500000E+00  0.6000000E+01
  0.2500000E+00  0.5000000E+00  0.6000000E+01
  0.5000000E+00  0.5000000E+00  0.6000000E+01
  0.7500000E+00  0.5000000E+00  0.6000000E+01
  0.5000000E+00  0.7500000E+00  0.6000000E+01
  0.5000000E+00  0.5000000E+00  0.6500000E+01
  0.5000000E+00  0.2500000E+00  0.7000000E+01
  0.2500000E+00  0.5000000E+00  0.7000000E+01
  0.5000000E+00  0.5000000E+00  0.7000000E+01
  0.7500000E+00  0.5000000E+00  0.7000000E+01
  0.5000000E+00  0.7500000E+00  0.7000000E+01
  0.5000000E+00  0.5000000E+00  0.7500000E+01
CELLS         32
,        128
         3        -1         0         9
         3       189         9         1
         3       218        18        94
         3        77        94        12
         3       160        60       104
         3       193       104        33
         3       224       191       221
         3        79       221       133
         3       164        58       108
         3       197       108        35
         3       230       195       227
         3        81       227       137
         3       168        56       112
         3       201       112        37
         3       236       199       233
         3        83       233       141
         3       172        54       116
         3       205       116        39
         3       242       203       239
         3        85       239       145
         3       176        52       120
         3       209       120        41
         3       248       207       245
         3        87       245       149
         3       180        50       124
         3       213       124        43
         3       254       211       251
         3        89       251       153
         3       184        48       128
         3       217       128        45
         3       260       215       257
         3        91       257       157
CELL_TYPES         32
         5
         5
         5
         5
         5
         5
         5
         5
         5
         5
         5
         5
         5
         5
         5
         5
         5
         5
         5
         5
         5
         5
         5
         5
         5
         5
         5
         5
         5
         5
         5
         5
POINT_DATA        261
VECTORS Displacement double
  0.0000000E+00  0.0000000E+00  0.0000000E+00
  0.0000000E+00  0.0000000E+00  0.0000000E+00
  0.0000000E+00  0.0000000E+00  0.0000000E+00
  0.0000000E+00  0.0000000E+00  0.0000000E+00
  0.0000000E+00  0.7142521E-06  0.7142521E-06
  0.0000000E+00 -0.7142521E-06  0.7142521E-06
  0.0000000E+00 -0.7142521E-06 -0.7142521E-06
  0.0000000E+00  0.7142521E-06 -0.7142521E-06
  0.0000000E+00  0.0000000E+00  0.0000000E+00
  0.0000000E+00  0.0000000E+00  0.0000000E+00
  0.0000000E+00  0.0000000E+00  0.0000000E+00
  0.0000000E+00  0.0000000E+00  0.0000000E+00
  0.0000000E+00  0.0000000E+00  0.0000000E+00
  0.0000000E+00  0.0000000E+00  0.0000000E+00
  0.0000000E+00  0.0000000E+00  0.0000000E+00
  0.0000000E+00  0.0000000E+00  0.0000000E+00
  0.0000000E+00  0.0000000E+00  0.0000000E+00
  0.0000000E+00  0.0000000E+00  0.0000000E+00
  0.0000000E+00  0.0000000E+00  0.0000000E+00
  0.0000000E+00  0.0000000E+00  0.0000000E+00
  0.0000000E+00  0.3571268E-06  0.7142819E-06
  0.0000000E+00  0.1391535E-16  0.7143130E-06
  0.0000000E+00 -0.3571268E-06  0.7142819E-06
  0.0000000E+00 -0.7142819E-06  0.3571268E-06
  0.0000000E+00 -0.7143130E-06  0.5104706E-16
  0.0000000E+00 -0.7142819E-06 -0.3571268E-06
  0.0000000E+00 -0.3571268E-06 -0.7142819E-06
  0.0000000E+00  0.1350889E-16 -0.7143130E-06
  0.0000000E+00  0.3571268E-06 -0.7142819E-06
  0.0000000E+00  0.7142819E-06 -0.3571268E-06
  0.0000000E+00  0.7143130E-06  0.5064079E-16
  0.0000000E+00  0.7142819E-06  0.3571268E-06
  0.0000000E+00 -0.7927071E-06  0.7927071E-06
  0.0000000E+00 -0.5945158E-06  0.5945158E-06
  0.0000000E+00 -0.7291218E-06  0.7291218E-06
  0.0000000E+00 -0.6908846E-06  0.6908846E-06
  0.0000000E+00 -0.7173129E-06  0.7173129E-06
  0.0000000E+00 -0.7089801E-06  0.7089801E-06
  0.0000000E+00 -0.7153891E-06  0.7153891E-06
  0.0000000E+00 -0.7128226E-06  0.7128226E-06
  0.0000000E+00 -0.7145498E-06  0.7145498E-06
  0.0000000E+00 -0.7138851E-06  0.7138851E-06
  0.0000000E+00 -0.7143804E-06  0.7143804E-06
  0.0000000E+00 -0.7141654E-06  0.7141654E-06
  0.0000000E+00 -0.7143099E-06  0.7143099E-06
  0.0000000E+00 -0.7142448E-06  0.7142448E-06
  0.0000000E+00 -0.7143001E-06  0.7143001E-06
  0.0000000E+00  0.7143001E-06  0.7143001E-06
  0.0000000E+00  0.7142448E-06  0.7142448E-06
  0.0000000E+00  0.7143099E-06  0.7143099E-06
  0.0000000E+00  0.7141654E-06  0.7141654E-06
  0.0000000E+00  0.7143804E-06  0.7143804E-06
  0.0000000E+00  0.7138851E-06  0.7138851E-06
  0.0000000E+00  0.7145498E-06  0.7145498E-06
  0.0000000E+00  0.7128226E-06  0.7128226E-06
  0.0000000E+00  0.7153891E-06  0.7153891E-06
  0.0000000E+00  0.7089801E-06  0.7089801E-06
  0.0000000E+00  0.7173129E-06  0.7173129E-06
  0.0000000E+00  0.6908846E-06  0.6908846E-06
  0.0000000E+00  0.7291218E-06  0.7291218E-06
  0.0000000E+00  0.5945158E-06  0.5945158E-06
  0.0000000E+00  0.7927071E-06  0.7927071E-06
  0.0000000E+00 -0.7927071E-06 -0.7927071E-06
  0.0000000E+00 -0.5945158E-06 -0.5945158E-06
  0.0000000E+00 -0.7291218E-06 -0.7291218E-06
  0.0000000E+00 -0.6908846E-06 -0.6908846E-06
  0.0000000E+00 -0.7173129E-06 -0.7173129E-06
  0.0000000E+00 -0.7089801E-06 -0.7089801E-06
  0.0000000E+00 -0.7153891E-06 -0.7153891E-06
  0.0000000E+00 -0.7128226E-06 -0.7128226E-06
  0.0000000E+00 -0.7145498E-06 -0.7145498E-06
  0.0000000E+00 -0.7138851E-06 -0.7138851E-06
  0.0000000E+00 -0.7143804E-06 -0.7143804E-06
  0.0000000E+00 -0.7141654E-06 -0.7141654E-06
  0.0000000E+00 -0.7143099E-06 -0.7143099E-06
  0.0000000E+00 -0.7142448E-06 -0.7142448E-06
  0.0000000E+00 -0.7143001E-06 -0.7143001E-06
  0.0000000E+00  0.7927071E-06 -0.7927071E-06
  0.0000000E+00  0.5945158E-06 -0.5945158E-06
  0.0000000E+00  0.7291218E-06 -0.7291218E-06
  0.0000000E+00  0.6908846E-06 -0.6908846E-06
  0.0000000E+00  0.7173129E-06 -0.7173129E-06
  0.0000000E+00  0.7089801E-06 -0.7089801E-06
  0.0000000E+00  0.7153891E-06 -0.7153891E-06
  0.0000000E+00  0.7128226E-06 -0.7128226E-06
  0.0000000E+00  0.7145498E-06 -0.7145498E-06
  0.0000000E+00  0.7138851E-06 -0.7138851E-06
  0.0000000E+00  0.7143804E-06 -0.7143804E-06
  0.0000000E+00  0.7141654E-06 -0.7141654E-06
  0.0000000E+00  0.7143099E-06 -0.7143099E-06
  0.0000000E+00  0.7142448E-06 -0.7142448E-06
  0.0000000E+00  0.7143001E-06 -0.7143001E-06
  0.0000000E+00  0.0000000E+00  0.0000000E+00
  0.0000000E+00  0.0000000E+00  0.0000000E+00
  0.0000000E+00  0.0000000E+00  0.0000000E+00
  0.0000000E+00  0.0000000E+00  0.0000000E+00
  0.0000000E+00  0.0000000E+00  0.0000000E+00
  0.0000000E+00  0.1382632E-16  0.3571537E-06
  0.0000000E+00  0.3571537E-06  0.5076572E-16
  0.0000000E+00  0.1371205E-16  0.5086475E-16
  0.0000000E+00 -0.3571537E-06  0.5095872E-16
  0.0000000E+00  0.1360217E-16 -0.3571537E-06
  0.0000000E+00  0.6856711E-19  0.7934217E-06
  0.0000000E+00  0.2995231E-06  0.6075428E-06
  0.0000000E+00  0.2879052E-18  0.6231922E-06
  0.0000000E+00 -0.2995231E-06  0.6075428E-06
  0.0000000E+00  0.6167994E-18  0.7163197E-06
  0.0000000E+00  0.3440899E-06  0.7007237E-06
  0.0000000E+00  0.1067764E-17  0.7100266E-06
  0.0000000E+00 -0.3440899E-06  0.7007237E-06
  0.0000000E+00  0.1619540E-17  0.7121122E-06
  0.0000000E+00  0.3547399E-06  0.7125823E-06
  0.0000000E+00  0.2293997E-17  0.7163903E-06
  0.0000000E+00 -0.3547399E-06  0.7125823E-06
  0.0000000E+00  0.3079104E-17  0.7135820E-06
  0.0000000E+00  0.3563149E-06  0.7140465E-06
  0.0000000E+00  0.3969091E-17  0.7152248E-06
  0.0000000E+00 -0.3563149E-06  0.7140465E-06
  0.0000000E+00  0.4934294E-17  0.7140241E-06
  0.0000000E+00  0.3569667E-06  0.7142387E-06
  0.0000000E+00  0.5971687E-17  0.7146108E-06
  0.0000000E+00 -0.3569667E-06  0.7142387E-06
  0.0000000E+00  0.7153605E-17  0.7142223E-06
  0.0000000E+00  0.3570748E-06  0.7142744E-06
  0.0000000E+00  0.8450847E-17  0.7143798E-06
  0.0000000E+00 -0.3570748E-06  0.7142744E-06
  0.0000000E+00  0.9801661E-17  0.7142621E-06
  0.0000000E+00  0.3571243E-06  0.7142820E-06
  0.0000000E+00  0.1113201E-16  0.7143202E-06
  0.0000000E+00 -0.3571243E-06  0.7142820E-06
  0.0000000E+00  0.1251208E-16  0.7142757E-06
  0.0000000E+00 -0.7934217E-06  0.2236445E-18
  0.0000000E+00 -0.6075428E-06  0.2995231E-06
  0.0000000E+00 -0.6231922E-06  0.1100142E-17
  0.0000000E+00 -0.6075428E-06 -0.2995231E-06
  0.0000000E+00 -0.7163197E-06  0.2425343E-17
  0.0000000E+00 -0.7007237E-06  0.3440899E-06
  0.0000000E+00 -0.7100266E-06  0.4251417E-17
  0.0000000E+00 -0.7007237E-06 -0.3440899E-06
  0.0000000E+00 -0.7121122E-06  0.6482608E-17
  0.0000000E+00 -0.7125823E-06  0.3547399E-06
  0.0000000E+00 -0.7163903E-06  0.9104374E-17
  0.0000000E+00 -0.7125823E-06 -0.3547399E-06
  0.0000000E+00 -0.7135820E-06  0.1207107E-16
  0.0000000E+00 -0.7140465E-06  0.3563149E-06
  0.0000000E+00 -0.7152248E-06  0.1538003E-16
  0.0000000E+00 -0.7140465E-06 -0.3563149E-06
  0.0000000E+00 -0.7140241E-06  0.1896113E-16
  0.0000000E+00 -0.7142387E-06  0.3569667E-06
  0.0000000E+00 -0.7146108E-06  0.2287918E-16
  0.0000000E+00 -0.7142387E-06 -0.3569667E-06
  0.0000000E+00 -0.7142223E-06  0.2705087E-16
  0.0000000E+00 -0.7142744E-06  0.3570748E-06
  0.0000000E+00 -0.7143798E-06  0.3153631E-16
  0.0000000E+00 -0.7142744E-06 -0.3570748E-06
  0.0000000E+00 -0.7142621E-06  0.3620960E-16
  0.0000000E+00 -0.7142820E-06  0.3571243E-06
  0.0000000E+00 -0.7143202E-06  0.4110890E-16
  0.0000000E+00 -0.7142820E-06 -0.3571243E-06
  0.0000000E+00 -0.7142757E-06  0.4606736E-16
  0.0000000E+00  0.9084472E-20 -0.7934217E-06
  0.0000000E+00 -0.2995231E-06 -0.6075428E-06
  0.0000000E+00  0.1706507E-18 -0.6231922E-06
  0.0000000E+00  0.2995231E-06 -0.6075428E-06
  0.0000000E+00  0.4407935E-18 -0.7163197E-06
  0.0000000E+00 -0.3440899E-06 -0.7007237E-06
  0.0000000E+00  0.8341846E-18 -0.7100266E-06
  0.0000000E+00  0.3440899E-06 -0.7007237E-06
  0.0000000E+00  0.1358424E-17 -0.7121122E-06
  0.0000000E+00 -0.3547399E-06 -0.7125823E-06
  0.0000000E+00  0.2000004E-17 -0.7163903E-06
  0.0000000E+00  0.3547399E-06 -0.7125823E-06
  0.0000000E+00  0.2761470E-17 -0.7135820E-06
  0.0000000E+00 -0.3563149E-06 -0.7140465E-06
  0.0000000E+00  0.3629113E-17 -0.7152248E-06
  0.0000000E+00  0.3563149E-06 -0.7140465E-06
  0.0000000E+00  0.4576346E-17 -0.7140241E-06
  0.0000000E+00 -0.3569667E-06 -0.7142387E-06
  0.0000000E+00  0.5620562E-17 -0.7146108E-06
  0.0000000E+00  0.3569667E-06 -0.7142387E-06
  0.0000000E+00  0.6774622E-17 -0.7142223E-06
  0.0000000E+00 -0.3570748E-06 -0.7142744E-06
  0.0000000E+00  0.8015261E-17 -0.7143798E-06
  0.0000000E+00  0.3570748E-06 -0.7142744E-06
  0.0000000E+00  0.9354632E-17 -0.7142621E-06
  0.0000000E+00 -0.3571243E-06 -0.7142820E-06
  0.0000000E+00  0.1070692E-16 -0.7143202E-06
  0.0000000E+00  0.3571243E-06 -0.7142820E-06
  0.0000000E+00  0.1211315E-16 -0.7142757E-06
  0.0000000E+00  0.7934217E-06  0.1655817E-18
  0.0000000E+00  0.6075428E-06 -0.2995231E-06
  0.0000000E+00  0.6231922E-06  0.9812976E-18
  0.0000000E+00  0.6075428E-06  0.2995231E-06
  0.0000000E+00  0.7163197E-06  0.2246216E-17
  0.0000000E+00  0.7007237E-06 -0.3440899E-06
  0.0000000E+00  0.7100266E-06  0.4025471E-17
  0.0000000E+00  0.7007237E-06  0.3440899E-06
  0.0000000E+00  0.7121122E-06  0.6217652E-17
  0.0000000E+00  0.7125823E-06 -0.3547399E-06
  0.0000000E+00  0.7163903E-06  0.8812398E-17
  0.0000000E+00  0.7125823E-06  0.3547399E-06
  0.0000000E+00  0.7135820E-06  0.1174672E-16
  0.0000000E+00  0.7140465E-06 -0.3563149E-06
  0.0000000E+00  0.7152248E-06  0.1500667E-16
  0.0000000E+00  0.7140465E-06  0.3563149E-06
  0.0000000E+00  0.7140241E-06  0.1861564E-16
  0.0000000E+00  0.7142387E-06 -0.3569667E-06
  0.0000000E+00  0.7146108E-06  0.2250604E-16
  0.0000000E+00  0.7142387E-06  0.3569667E-06
  0.0000000E+00  0.7142223E-06  0.2666068E-16
  0.0000000E+00  0.7142744E-06 -0.3570748E-06
  0.0000000E+00  0.7143798E-06  0.3108600E-16
  0.0000000E+00  0.7142744E-06  0.3570748E-06
  0.0000000E+00  0.7142621E-06  0.3580525E-16
  0.0000000E+00  0.7142820E-06 -0.3571243E-06
  0.0000000E+00  0.7143202E-06  0.4067283E-16
  0.0000000E+00  0.7142820E-06  0.3571243E-06
  0.0000000E+00  0.7142757E-06  0.4565846E-16
  0.0000000E+00  0.5610889E-19  0.2680400E-18
  0.0000000E+00  0.2746165E-18  0.3119938E-06
  0.0000000E+00  0.3119938E-06  0.1070109E-17
  0.0000000E+00  0.2476606E-18  0.1108885E-17
  0.0000000E+00 -0.3119938E-06  0.1128711E-17
  0.0000000E+00  0.2149875E-18 -0.3119938E-06
  0.0000000E+00  0.5433887E-18  0.2405931E-17
  0.0000000E+00  0.1025360E-17  0.3540337E-06
  0.0000000E+00  0.3540337E-06  0.4128121E-17
  0.0000000E+00  0.9736230E-18  0.4203070E-17
  0.0000000E+00 -0.3540337E-06  0.4241782E-17
  0.0000000E+00  0.9087075E-18 -0.3540337E-06
  0.0000000E+00  0.1505762E-17  0.6410130E-17
  0.0000000E+00  0.2237778E-17  0.3582895E-06
  0.0000000E+00  0.3582895E-06  0.8922332E-17
  0.0000000E+00  0.2172224E-17  0.9008692E-17
  0.0000000E+00 -0.3582895E-06  0.9069255E-17
  0.0000000E+00  0.2091460E-17 -0.3582895E-06
  0.0000000E+00  0.2930369E-17  0.1195782E-16
  0.0000000E+00  0.3891630E-17  0.3575644E-06
  0.0000000E+00  0.3575644E-06  0.1513221E-16
  0.0000000E+00  0.3808260E-17  0.1523761E-16
  0.0000000E+00 -0.3575644E-06  0.1531330E-16
  0.0000000E+00  0.3724616E-17 -0.3575644E-06
  0.0000000E+00  0.4769960E-17  0.1883173E-16
  0.0000000E+00  0.5895981E-17  0.3573163E-06
  0.0000000E+00  0.3573163E-06  0.2263178E-16
  0.0000000E+00  0.5817872E-17  0.2272992E-16
  0.0000000E+00 -0.3573163E-06  0.2281794E-16
  0.0000000E+00  0.5722956E-17 -0.3573163E-06
  0.0000000E+00  0.6976759E-17  0.2689469E-16
  0.0000000E+00  0.8358506E-17  0.3571868E-06
  0.0000000E+00  0.3571868E-06  0.3122248E-16
  0.0000000E+00  0.8263865E-17  0.3133782E-16
  0.0000000E+00 -0.3571868E-06  0.3144541E-16
  0.0000000E+00  0.8139649E-17 -0.3571868E-06
  0.0000000E+00  0.9578037E-17  0.3603231E-16
  0.0000000E+00  0.1104333E-16  0.3571616E-06
  0.0000000E+00  0.3571616E-06  0.4078675E-16
  0.0000000E+00  0.1094107E-16  0.4091332E-16
  0.0000000E+00 -0.3571616E-06  0.4101842E-16
  0.0000000E+00  0.1083107E-16 -0.3571616E-06
  0.0000000E+00  0.1230627E-16  0.4587098E-16
