<?xml version="1.0"?>
<VTKFile type="UnstructuredGrid" version="0.1" byte_order="LittleEndian">
  <UnstructuredGrid>
    <Piece NumberOfPoints="102" NumberOfCells="288">
      <Points>
        <DataArray type="Float64" NumberOfComponents="3" format="ascii">
        0.04000 0.04000 1.00000
        0.04000 0.00000 1.00000
        0.04000 0.00000 0.00000
        0.04000 0.04000 0.00000
        0.00000 0.00000 1.00000
        0.00000 0.00000 0.00000
        0.00000 0.04000 0.00000
        0.00000 0.04000 1.00000
        0.04000 0.02000 1.00000
        0.04000 0.00000 0.90000
        0.04000 0.00000 0.80000
        0.04000 0.00000 0.70000
        0.04000 0.00000 0.60000
        0.04000 0.00000 0.50000
        0.04000 0.00000 0.40000
        0.04000 0.00000 0.30000
        0.04000 0.00000 0.20000
        0.04000 0.00000 0.10000
        0.04000 0.02000 0.00000
        0.04000 0.04000 0.10000
        0.04000 0.04000 0.20000
        0.04000 0.04000 0.30000
        0.04000 0.04000 0.40000
        0.04000 0.04000 0.50000
        0.04000 0.04000 0.60000
        0.04000 0.04000 0.70000
        0.04000 0.04000 0.80000
        0.04000 0.04000 0.90000
        0.02000 0.00000 1.00000
        0.00000 0.00000 0.90000
        0.00000 0.00000 0.80000
        0.00000 0.00000 0.70000
        0.00000 0.00000 0.60000
        0.00000 0.00000 0.50000
        0.00000 0.00000 0.40000
        0.00000 0.00000 0.30000
        0.00000 0.00000 0.20000
        0.00000 0.00000 0.10000
        0.02000 0.00000 0.00000
        0.00000 0.02000 0.00000
        0.02000 0.04000 0.00000
        0.02000 0.04000 1.00000
        0.00000 0.04000 0.10000
        0.00000 0.04000 0.20000
        0.00000 0.04000 0.30000
        0.00000 0.04000 0.40000
        0.00000 0.04000 0.50000
        0.00000 0.04000 0.60000
        0.00000 0.04000 0.70000
        0.00000 0.04000 0.80000
        0.00000 0.04000 0.90000
        0.00000 0.02000 1.00000
        0.04000 0.02000 0.90000
        0.04000 0.02000 0.80000
        0.04000 0.02000 0.70000
        0.04000 0.02000 0.60000
        0.04000 0.02000 0.50000
        0.04000 0.02000 0.40000
        0.04000 0.02000 0.30000
        0.04000 0.02000 0.20000
        0.04000 0.02000 0.10000
        0.02000 0.00000 0.90000
        0.02000 0.00000 0.80000
        0.02000 0.00000 0.70000
        0.02000 0.00000 0.60000
        0.02000 0.00000 0.50000
        0.02000 0.00000 0.40000
        0.02000 0.00000 0.30000
        0.02000 0.00000 0.20000
        0.02000 0.00000 0.10000
        0.02000 0.02000 0.00000
        0.02000 0.04000 0.90000
        0.02000 0.04000 0.80000
        0.02000 0.04000 0.70000
        0.02000 0.04000 0.60000
        0.02000 0.04000 0.50000
        0.02000 0.04000 0.40000
        0.02000 0.04000 0.30000
        0.02000 0.04000 0.20000
        0.02000 0.04000 0.10000
        0.02000 0.02000 1.00000
        0.00000 0.02000 0.90000
        0.00000 0.02000 0.80000
        0.00000 0.02000 0.70000
        0.00000 0.02000 0.60000
        0.00000 0.02000 0.50000
        0.00000 0.02000 0.40000
        0.00000 0.02000 0.30000
        0.00000 0.02000 0.20000
        0.00000 0.02000 0.10000
        0.01560 0.01555 0.34388
        0.01651 0.02822 0.24710
        0.01997 0.01752 0.86677
        0.01969 0.02105 0.54679
        0.02078 0.01867 0.45855
        0.02399 0.01765 0.97893
        0.02286 0.02797 0.95003
        0.01921 0.01217 0.04553
        0.01164 0.02090 0.01991
        0.01443 0.01874 0.75928
        0.02208 0.02260 0.64896
        0.02330 0.01535 0.17608
        </DataArray>
      </Points>
      <Cells>
        <DataArray type="Int32" Name="connectivity" format="ascii">
 86 66 34 90
 44 77 86 87
 90 35 67 66
 68 67 58 91
 92 50 81 71
 55 93 74 56
 93 85 46 75
 65 85 75 94
 93 12 65 13
 93 84 85 32
 93 65 12 64
 93 33 64 32
 93 64 33 65
 52 95 0 96
 0 96 27 52
 95 96 29 4
 95 29 96 61
 95 96 4 51
 95 96 51 7
 95 96 7 41
 96 95 0 41
 96 61 52 95
 76 46 94 75
 40 18 3 79
 94 56 65 13
 56 65 13 93
 89 40 79 97
 40 98 97 89
 97 89 98 37
 97 98 18 2
 97 37 98 5
 97 98 38 5
 97 98 2 38
 72 25 99 73
 40 42 89 79
 97 5 69 37
 97 69 5 38
 98 39 89 6
 98 89 39 37
 98 18 2 70
 98 70 2 38
 100 63 32 64
 100 74 48 73
 100 73 24 74
 100 73 25 24
 100 11 64 12
 100 54 12 55
 100 25 54 55
 100 64 11 63
 95 8 80 1
 101 42 89 88
 96 71 27 52
 95 28 4 29
 95 61 1 28
 96 29 81 61
 95 80 41 7
 96 4 51 81
 95 80 7 51
 91 77 21 20
 91 78 77 20
 100 83 73 48
 43 91 101 78
 58 21 59 101
 101 21 59 20
 91 43 44 78
 68 101 58 16
 83 73 48 99
 87 67 58 90
 91 87 44 43
 15 68 67 58
 101 59 16 17
 59 16 58 101
 99 53 62 63
 92 81 29 61
 92 72 53 62
 92 26 53 72
 9 52 62 61
 92 62 61 30
 52 62 61 92
 96 52 61 71
 92 29 30 61
 94 57 66 86
 67 57 15 58
 58 90 67 57
 87 67 88 91
 94 14 66 57
 14 57 15 67
 67 87 35 90
 30 83 99 31
 92 82 29 81
 87 44 77 91
 100 54 73 83
 91 44 77 78
 101 79 42 43
 99 30 82 83
 91 67 58 87
 100 48 74 47
 76 90 86 77
 63 53 11 54
 72 26 99 25
 25 99 73 54
 99 82 62 72
 100 64 55 12
 63 31 62 99
 100 25 73 54
 100 31 83 84
 95 51 4 28
 89 79 60 97
 97 18 79 60
 49 99 48 73
 97 17 38 2
 51 71 50 7
 95 61 9 1
 95 80 8 41
 41 96 27 0
 7 96 51 71
 101 43 42 88
 101 79 89 42
 72 49 73 99
 94 86 66 34
 98 40 70 6
 60 78 19 79
 91 77 58 21
 20 78 19 60
 92 82 49 72
 52 10 62 53
 56 75 74 23
 45 94 46 85
 78 91 101 20
 90 77 21 58
 87 43 91 88
 99 31 62 30
 76 45 94 46
 101 79 43 78
 93 84 74 47
 57 56 23 75
 93 46 85 84
 46 94 75 85
 82 83 48 99
 100 24 25 55
 53 62 63 10
 48 49 82 99
 100 48 47 83
 92 49 82 81
 62 72 53 99
 71 96 51 81
 92 26 72 71
 93 33 32 85
 96 7 41 71
 61 71 81 96
 96 29 4 81
 18 97 79 40
 94 33 65 85
 43 91 88 101
 97 37 69 89
 98 40 97 18
 98 5 37 39
 98 18 70 40
 6 42 89 40
 97 60 2 18
 98 38 5 39
 98 38 39 70
 97 2 60 17
 101 17 16 69
 90 76 22 21
 88 68 91 67
 101 69 60 17
 77 86 87 90
 16 68 15 58
 35 87 67 88
 90 21 77 76
 90 34 86 87
 79 101 60 78
 94 76 57 86
 22 57 75 76
 93 75 47 74
 94 65 56 75
 100 84 83 47
 93 55 13 56
 53 99 26 54
 93 64 12 55
 100 55 64 84
 84 55 64 93
 76 86 94 45
 92 71 52 27
 92 81 50 49
 71 52 61 92
 92 71 27 26
 95 51 28 80
 95 0 41 8
 98 39 6 70
 54 63 83 100
 97 89 69 60
 100 84 64 32
 97 69 38 17
 78 101 60 20
 79 18 3 19
 97 17 60 69
 101 79 60 89
 13 56 14 94
 35 36 88 67
 18 79 60 19
 14 94 66 13
 90 58 21 22
 91 101 58 68
 33 65 85 93
 90 66 34 35
 86 77 45 76
 33 94 65 34
 90 86 57 76
 89 40 98 6
 20 91 101 21
 93 74 84 55
 90 35 34 87
 75 76 57 94
 93 32 64 84
 14 57 94 56
 101 60 20 59
 66 94 65 13
 93 84 47 46
 57 76 22 90
 23 56 24 74
 88 36 68 67
 86 94 45 85
 94 86 33 85
 10 53 11 63
 75 57 22 23
 93 56 75 74
 90 57 66 67
 93 85 75 65
 56 94 75 57
 34 94 65 66
 21 91 101 58
 34 86 33 94
 75 65 56 93
 58 87 77 91
 57 66 67 14
 100 11 12 54
 90 57 58 22
 100 55 74 24
 54 11 63 100
 82 30 99 62
 26 99 25 54
 83 54 73 99
 90 87 77 58
 72 53 99 26
 93 13 55 12
 92 53 26 27
 72 82 62 92
 101 36 88 89
 61 52 95 9
 95 1 9 8
 95 61 28 29
 92 71 72 50
 92 27 52 53
 95 9 52 8
 9 10 62 52
 95 8 52 0
 95 28 1 80
 100 47 74 84
 91 68 88 101
 57 66 86 90
 96 27 71 41
 93 46 47 75
 44 77 45 86
 99 63 83 54
 92 82 62 30
 92 82 30 29
 101 69 68 37
 74 56 24 55
 81 71 50 51
 101 37 89 69
 54 99 63 53
 92 71 81 61
 92 49 50 72
 100 32 63 31
 101 37 68 36
 99 49 82 72
 60 89 69 101
 100 31 63 83
 101 59 17 60
 100 31 84 32
 53 52 92 62
 55 74 84 100
 101 88 36 68
 101 36 89 37
 31 63 83 99
 101 69 16 68
        </DataArray>
        <DataArray type="Int32" Name="offsets" format="ascii">
 4
 8
 12
 16
 20
 24
 28
 32
 36
 40
 44
 48
 52
 56
 60
 64
 68
 72
 76
 80
 84
 88
 92
 96
 100
 104
 108
 112
 116
 120
 124
 128
 132
 136
 140
 144
 148
 152
 156
 160
 164
 168
 172
 176
 180
 184
 188
 192
 196
 200
 204
 208
 212
 216
 220
 224
 228
 232
 236
 240
 244
 248
 252
 256
 260
 264
 268
 272
 276
 280
 284
 288
 292
 296
 300
 304
 308
 312
 316
 320
 324
 328
 332
 336
 340
 344
 348
 352
 356
 360
 364
 368
 372
 376
 380
 384
 388
 392
 396
 400
 404
 408
 412
 416
 420
 424
 428
 432
 436
 440
 444
 448
 452
 456
 460
 464
 468
 472
 476
 480
 484
 488
 492
 496
 500
 504
 508
 512
 516
 520
 524
 528
 532
 536
 540
 544
 548
 552
 556
 560
 564
 568
 572
 576
 580
 584
 588
 592
 596
 600
 604
 608
 612
 616
 620
 624
 628
 632
 636
 640
 644
 648
 652
 656
 660
 664
 668
 672
 676
 680
 684
 688
 692
 696
 700
 704
 708
 712
 716
 720
 724
 728
 732
 736
 740
 744
 748
 752
 756
 760
 764
 768
 772
 776
 780
 784
 788
 792
 796
 800
 804
 808
 812
 816
 820
 824
 828
 832
 836
 840
 844
 848
 852
 856
 860
 864
 868
 872
 876
 880
 884
 888
 892
 896
 900
 904
 908
 912
 916
 920
 924
 928
 932
 936
 940
 944
 948
 952
 956
 960
 964
 968
 972
 976
 980
 984
 988
 992
 996
 1000
 1004
 1008
 1012
 1016
 1020
 1024
 1028
 1032
 1036
 1040
 1044
 1048
 1052
 1056
 1060
 1064
 1068
 1072
 1076
 1080
 1084
 1088
 1092
 1096
 1100
 1104
 1108
 1112
 1116
 1120
 1124
 1128
 1132
 1136
 1140
 1144
 1148
 1152
        </DataArray>
        <DataArray type="UInt8" Name="types" format="ascii">
 10
 10
 10
 10
 10
 10
 10
 10
 10
 10
 10
 10
 10
 10
 10
 10
 10
 10
 10
 10
 10
 10
 10
 10
 10
 10
 10
 10
 10
 10
 10
 10
 10
 10
 10
 10
 10
 10
 10
 10
 10
 10
 10
 10
 10
 10
 10
 10
 10
 10
 10
 10
 10
 10
 10
 10
 10
 10
 10
 10
 10
 10
 10
 10
 10
 10
 10
 10
 10
 10
 10
 10
 10
 10
 10
 10
 10
 10
 10
 10
 10
 10
 10
 10
 10
 10
 10
 10
 10
 10
 10
 10
 10
 10
 10
 10
 10
 10
 10
 10
 10
 10
 10
 10
 10
 10
 10
 10
 10
 10
 10
 10
 10
 10
 10
 10
 10
 10
 10
 10
 10
 10
 10
 10
 10
 10
 10
 10
 10
 10
 10
 10
 10
 10
 10
 10
 10
 10
 10
 10
 10
 10
 10
 10
 10
 10
 10
 10
 10
 10
 10
 10
 10
 10
 10
 10
 10
 10
 10
 10
 10
 10
 10
 10
 10
 10
 10
 10
 10
 10
 10
 10
 10
 10
 10
 10
 10
 10
 10
 10
 10
 10
 10
 10
 10
 10
 10
 10
 10
 10
 10
 10
 10
 10
 10
 10
 10
 10
 10
 10
 10
 10
 10
 10
 10
 10
 10
 10
 10
 10
 10
 10
 10
 10
 10
 10
 10
 10
 10
 10
 10
 10
 10
 10
 10
 10
 10
 10
 10
 10
 10
 10
 10
 10
 10
 10
 10
 10
 10
 10
 10
 10
 10
 10
 10
 10
 10
 10
 10
 10
 10
 10
 10
 10
 10
 10
 10
 10
 10
 10
 10
 10
 10
 10
 10
 10
 10
 10
 10
 10
 10
 10
 10
 10
 10
 10
 10
 10
 10
 10
 10
 10
 10
 10
 10
 10
 10
 10
        </DataArray>
      </Cells>
      <PointData Scalars="Displacement">
        <DataArray type="Float64" Name="Displacement" NumberOfComponents="3" format="ascii">
        0.00000000 0.00000000 0.00000000
        0.00000000 0.00000000 0.00000000
        -60660.45921565 818902.48646801 -25143.12860741
        -60655.92825971 818930.39728339 22807.02993119
        0.00000000 0.00000000 0.00000000
        -60675.56770240 818964.84054749 -23014.47710827
        -60648.15838858 818925.90119495 24959.81798740
        0.00000000 0.00000000 0.00000000
        0.00000000 0.00000000 0.00000000
        -3913.35616160 11590.46826137 -5318.91644890
        -9706.56137353 45438.22022766 -10197.52448709
        -16975.66754900 98791.39715557 -14176.09263777
        -25048.12015708 169970.24927556 -17286.66706316
        -32313.66959983 256662.36678731 -19823.18463731
        -38104.13386494 356129.65076853 -21892.28248513
        -43599.47231952 465270.80998194 -23853.21865351
        -49373.38334909 581413.12797451 -24620.31508346
        -55149.37625311 698905.72433961 -24953.30122415
        -60644.23213879 818888.46662593 -1150.18792163
        -55134.24997373 698929.31345816 22498.32068098
        -49286.58584691 581500.24254278 21960.39591283
        -43397.22236470 465242.52345709 21325.42491036
        -37709.17492984 356171.80845132 19877.16845981
        -31997.31911560 256758.35532437 17176.17581420
        -24967.15397236 170030.99729591 14170.82286361
        -16994.66265058 98808.42677475 10803.60538163
        -9448.39329631 45335.49765550 7413.06793144
        -3354.60097868 11485.05324184 3961.16933927
        0.00000000 0.00000000 0.00000000
        -3720.30354807 11977.16981947 -3672.59891071
        -9555.15914037 45443.38691405 -7623.24977132
        -16911.55294454 98667.84541101 -11174.25567910
        -24993.50872036 170037.88947909 -14517.47937131
        -32244.04657899 256920.38034880 -17584.92425537
        -38028.02811654 356437.02701397 -19987.92378074
        -43532.95932212 465486.85403756 -21461.83831946
        -49342.95031856 581446.86953640 -22367.85179411
        -55173.68201410 698943.10143280 -22741.58677809
        -60663.90393379 818904.60492343 -24112.49701220
        -60646.46311287 818920.51993365 974.75165276
        -60648.07340749 818889.23694100 23863.63871339
        0.00000000 0.00000000 0.00000000
        -55128.07574677 698946.29890645 24725.69266424
        -49330.29137780 581411.77168643 24258.27824918
        -43457.63879730 465420.99944080 23546.27502461
        -37849.96387533 356427.39588537 21598.53507998
        -32129.58132765 256868.50362973 19622.32087550
        -25023.15038243 169987.69967636 17070.78700990
        -17054.88369447 98715.31480781 13672.63360510
        -9543.96919946 45432.81816241 9535.96656056
        -3561.00458599 11944.49160612 5478.17441833
        0.00000000 0.00000000 0.00000000
        -3616.46254888 11387.73731401 -626.03787881
        -9537.53692543 45309.33979951 -985.34040878
        -16983.47938010 98782.66639551 -1309.72125201
        -24962.14657088 169974.65111949 -1369.29030202
        -32160.86821014 256628.65034630 -1129.08363090
        -37892.75330991 356101.05130888 -866.90837078
        -43472.92094845 465260.59789649 -1197.60214378
        -49308.20174107 581432.30874831 -1349.66107309
        -55152.38932340 698903.32494495 -1178.06852438
        -3800.43155986 11923.58857723 -4786.53871465
        -9561.78876725 45523.93715778 -8801.85116766
        -16912.43418459 98699.04434307 -12410.14452472
        -25022.13999984 170019.84771577 -15936.28582187
        -32270.05164712 256879.68580183 -18796.99825073
        -38040.37586856 356291.66951669 -21058.44426159
        -43531.34610292 465377.08808451 -22676.01387477
        -49337.76951211 581444.97228798 -23433.81741400
        -55157.84636211 698897.13949905 -23868.23669585
        -60636.12455798 818890.24263497 -99.26665497
        -3416.19948361 11785.37660568 4313.36551282
        -9511.86081480 45502.58038655 8585.60310542
        -17025.92849270 98763.08785142 12326.58484377
        -24991.51324687 169973.41803914 15835.38213466
        -32080.84283991 256876.03905403 18524.37599285
        -37768.93774869 356320.56682414 20760.32012482
        -43400.17665495 465337.51890984 22382.29961546
        -49321.04265557 581435.37263587 23196.24204101
        -55130.62777917 698925.09854739 23644.47171437
        0.00000000 0.00000000 0.00000000
        -3633.90316101 11904.96285837 510.52373183
        -9561.35446719 45363.96865514 707.43037290
        -16962.45275778 98662.76371047 1088.97344335
        -24983.57224946 169988.08859188 1085.15257202
        -32152.67946299 256842.13523373 865.10463385
        -37865.77503875 356412.25303372 621.32436122
        -43454.34763878 465451.87652196 976.53105532
        -49306.78289013 581393.60686179 892.21051439
        -55132.49372682 698936.09645370 977.46440442
        -41042.23329202 417392.42191072 -4722.96381760
        -46546.35375471 526740.12310332 9453.10246772
        -5610.92493764 22633.34715249 -1068.79448597
        -28789.42775545 215947.42221638 730.88074655
        -34533.27948859 297860.38659553 -1532.75274842
        -695.81666982 2186.81945315 301.28331563
        -1734.62667840 5536.03704826 1090.54196903
        -58145.99425984 764250.74282386 -9411.71218130
        -59549.36863910 795007.72497163 1424.15531940
        -12575.45690978 66799.94906724 -436.61095510
        -21057.55437338 134764.72512425 1593.56291509
        -50709.71323521 609414.31770853 -5767.07976534
        </DataArray>
      </PointData>
    </Piece>
  </UnstructuredGrid>
</VTKFile>
